# vtk DataFile Version 3.0
vtk output
ASCII
DATASET POLYDATA
POINTS 89 float
61.5 55.5 0.5 62.6914 55.6586 0.567454 59.4587 57.3437 1.22041 
58.5 57.5 0.5 57.3496 59.4822 1.04843 57.5 58.5 0.5 
71.5 57.5 0.5 73.7382 59.3226 1.6501 69.4836 55.6227 0.0548114 
72.5 57.5 0.5 73.5 58.5 0.5 55.5 61.5 0.5 
55.6689 62.6574 0.992774 73.8318 71.7434 2.34802 73.5 72.5 0.5 
71.7726 73.6631 1.74272 57.5 72.5 0.5 57.3457 71.6664 1.54336 
59.328 73.7023 1.76337 58.5 73.5 0.5 72.5 73.5 0.5 
67.099 55.4459 0.440023 68.6804 55.6896 1.15265 71.3415 56.9993 15.5509 
69.8352 75.293 1.19887 66.3934 75.753 0.3899 69.25 75.3579 7.40165 
60.6315 56.4843 15.771 55.4651 66.2336 0.257743 56.0014 69.6419 17.599 
55.7503 69.5019 -0.130358 56.6363 60.2159 13.6345 60.3572 74.6371 18.0698 
61.5257 75.3316 -0.054659 65.5749 55.336 9.41146 75.2937 61.6688 0.291473 
74.6712 60.4531 7.39371 72.8028 72.8304 18.1983 74.2937 71.1942 18.1362 
55.522 66.7272 18.5172 62.2432 75.4396 18.5132 75.4175 69.4606 0.323694 
75.3963 69.2077 18.2738 69.4018 55.9655 16.7097 75.7291 64.8953 0.375753 
63.4054 55.5038 18.4413 65.5098 55.2606 18.4313 67.9074 55.5605 14.8891 
74.5114 60.3029 18.2006 75.34 61.6734 18.1237 57.0358 71.3641 17.5176 
55.5801 63.601 18.5041 69.2006 55.8451 18.5861 73.1888 58.534 18.5663 
55.9277 61.4979 16.7512 75.7426 65.0092 18.5724 69.5187 75.364 18.1845 
65.8746 75.7336 18.5931 58.7472 57.3727 18.1425 70.8432 56.4246 18.5803 
65.3915 55.3521 18.5362 66.612 55.4165 18.5841 60.7227 56.3058 18.6466 
62.9787 55.5786 18.6355 58.8782 57.2927 18.7712 74.4901 60.3433 18.5868 
75.1776 61.5798 18.6249 55.4763 65.3538 18.5926 55.7269 68.598 18.5621 
56.6615 70.854 18.6255 75.2322 69.7683 18.5635 73.6268 71.9557 18.5801 
57.6165 71.9883 18.6136 58.8972 73.2564 18.5767 69.9398 75.1616 18.5697 
61.2206 75.0127 18.6144 56.7708 59.8003 18.5562 56.2928 60.6222 18.5266 
65.5254 65.8159 -49.4991 71.4605 56.657 19.0659 75.7495 64.5346 18.6931 
58.5624 72.9374 18.6856 71.6958 73.8943 18.7482 59.8425 74.199 18.9517 
69.3146 75.3347 18.5937 56.3161 60.3651 18.8099 75.2817 69.7157 18.847 
55.6178 68.3909 18.8059 73.6666 71.9228 18.8976 
POLYGONS 174 696
3 0 1 2 
3 3 2 4 
3 5 3 4 
3 6 7 8 
3 9 7 6 
3 7 9 10 
3 11 4 12 
3 13 14 15 
3 16 17 18 
3 19 16 18 
3 15 14 20 
3 21 22 1 
3 7 23 8 
3 24 25 26 
3 23 22 8 
3 2 1 27 
3 28 29 30 
3 12 4 31 
3 32 33 18 
3 22 34 1 
3 2 31 4 
3 35 36 7 
3 15 24 37 
3 37 13 15 
3 36 23 7 
3 13 37 38 
3 2 27 31 
3 28 39 29 
3 30 29 17 
3 33 32 40 
3 41 13 42 
3 33 40 25 
3 22 23 43 
3 44 41 42 
3 1 45 27 
3 1 34 46 
3 22 43 47 
3 1 46 45 
3 23 36 48 
3 35 44 49 
3 29 50 17 
3 22 47 34 
3 12 51 28 
3 28 51 39 
3 50 18 17 
3 18 50 32 
3 52 47 43 
3 23 48 53 
3 49 36 35 
3 31 54 12 
3 12 54 51 
3 49 44 55 
3 44 42 55 
3 13 38 42 
3 24 26 56 
3 56 37 24 
3 25 40 57 
3 25 57 56 
3 25 56 26 
3 58 31 27 
3 34 47 46 
3 59 43 23 
3 31 58 54 
3 60 46 61 
3 27 45 62 
3 63 62 45 
3 46 47 61 
3 52 61 47 
3 59 52 43 
3 58 27 64 
3 64 27 62 
3 65 53 48 
3 65 48 36 
3 55 66 49 
3 67 39 51 
3 29 39 68 
3 69 50 29 
3 70 42 38 
3 71 38 37 
3 72 73 50 
3 73 32 50 
3 74 71 37 
3 74 37 56 
3 40 32 75 
3 57 74 56 
3 60 63 45 
3 60 45 46 
3 53 59 23 
3 76 54 64 
3 64 54 58 
3 66 65 36 
3 66 36 49 
3 51 54 77 
3 70 55 42 
3 67 68 39 
3 68 69 29 
3 69 72 50 
3 71 70 38 
3 73 75 32 
3 76 77 54 
3 0 2 78 
3 1 0 78 
3 21 1 78 
3 22 21 78 
3 8 22 78 
3 6 8 78 
3 9 6 78 
3 10 9 78 
3 7 10 78 
3 35 7 78 
3 44 35 78 
3 41 44 78 
3 13 41 78 
3 14 13 78 
3 20 14 78 
3 15 20 78 
3 24 15 78 
3 25 24 78 
3 33 25 78 
3 18 33 78 
3 19 18 78 
3 16 19 78 
3 17 16 78 
3 30 17 78 
3 28 30 78 
3 12 28 78 
3 11 12 78 
3 4 11 78 
3 5 4 78 
3 3 5 78 
3 2 3 78 
3 52 59 79 
3 66 55 80 
3 72 81 73 
3 74 82 71 
3 75 83 40 
3 74 57 84 
3 59 53 79 
3 51 77 85 
3 55 70 80 
3 86 80 70 
3 68 67 87 
3 68 87 69 
3 70 71 88 
3 88 86 70 
3 73 81 83 
3 82 88 71 
3 73 83 75 
3 74 84 82 
3 76 85 77 
3 86 80 88 
3 79 52 53 
3 84 82 57 
3 82 88 57 
3 88 80 57 
3 57 80 40 
3 80 66 40 
3 40 66 83 
3 52 61 53 
3 64 76 62 
3 53 61 65 
3 87 69 67 
3 62 76 63 
3 63 76 60 
3 83 66 81 
3 69 72 67 
3 66 65 81 
3 65 61 81 
3 85 51 76 
3 76 51 60 
3 51 67 60 
3 67 72 60 
3 72 81 60 
3 61 60 81 

POINT_DATA 89
SCALARS attribute float
LOOKUP_TABLE default
1 1 1 1 1 1 1 1 1 
1 1 1 1 1 1 1 1 1 
1 1 1 1 1 1.00133 1 1 1 
1.00525 1 0.997735 1 1 0.999406 1 1 1 
1.00023 0.999804 0.96967 1.01651 0.977405 1 0.982115 0.981737 1 
0.988196 0.978268 0.920296 0.992685 0.989412 0.989455 0.888021 -0.0375616 0.560228 
1.01012 0.713809 0.980542 0.622036 1.00865 -0.000390092 -0.11162 0.909213 0.315026 
0.971074 0.0546199 -0.0297378 0.0135411 0.018862 -0.0731976 0.885908 -0.0325001 -0.030413 
0.919503 0.00922947 0.018989 -0.16143 -0.0795638 -0.104438 1 1.00348 0.967294 
0.987603 1.00458 0.993544 0.952788 1.01334 0.971818 0.985234 0.989691 
