# vtk DataFile Version 3.0
vtk output
ASCII
DATASET POLYDATA
POINTS 87 float
69.2006 55.8451 18.5861 69.1276 55.8203 20.1084 66.612 55.4165 18.5841 
71.4605 56.657 19.0659 58.8782 57.2927 18.7712 60.7227 56.3058 18.6466 
59.0148 57.1908 19.9439 73.1888 58.534 18.5663 74.4901 60.3433 18.5868 
73.7543 59.301 19.2254 55.4763 65.3538 18.5926 55.5801 63.601 18.5041 
55.5726 63.9444 20.0698 75.7495 64.5346 18.6931 74.9413 61.0308 19.1003 
75.1776 61.5798 18.6249 64.4813 55.3696 19.2147 65.3915 55.3521 18.5362 
62.9787 55.5786 18.6355 56.7708 59.8003 18.5562 57.4057 58.879 19.5886 
56.3161 60.3651 18.8099 55.6178 68.3909 18.8059 65.8746 75.7336 18.5931 
62.2432 75.4396 18.5132 64.6709 75.7632 19.6057 69.3146 75.3347 18.5937 
74.8809 60.6254 35.8183 75.2817 69.7157 18.847 74.2145 71.3238 36.6422 
75.3125 69.4023 36.337 73.6666 71.9228 18.8976 68.6049 75.4935 36.6679 
73.5307 58.7284 33.989 75.6935 66.7445 34.1385 56.6615 70.854 18.6255 
56.6808 70.9266 36.6635 57.6165 71.9883 18.6136 57.0444 71.3868 32.8824 
70.7513 74.6887 36.5812 71.6958 73.8943 18.7482 59.8425 74.199 18.9517 
61.8913 75.3394 34.7698 69.3451 55.8678 35.3489 58.5624 72.9374 18.6856 
60.0427 74.3526 34.3118 65.4925 55.3137 36.4372 72.1346 57.1707 35.7563 
75.4298 62.0241 34.3233 71.8132 73.8001 36.1951 65.4499 75.774 36.4941 
59.2022 57.0494 36.2862 55.5026 65.6041 36.5534 56.5791 60.1363 33.9036 
55.9278 61.4991 36.5172 55.5622 67.3342 33.6994 55.7684 68.7178 36.6574 
57.3743 58.9371 35.7857 75.6014 63.4672 36.6095 63.0382 55.5906 36.3248 
69.5613 55.9918 36.6795 70.9187 56.5089 36.6737 75.7059 66.5856 36.679 
63.0746 55.5797 36.7763 59.8443 56.6734 36.7106 65.6904 55.2529 36.7211 
57.3665 58.9314 36.6909 74.6332 59.9599 36.5606 56.1127 61.1179 36.6378 
75.644 64.0482 36.6478 75.6398 63.395 36.6694 55.598 67.682 36.6728 
75.2148 69.6791 36.7103 60.7395 74.9246 36.6651 58.6693 73.0795 36.6819 
72.5552 73.0459 36.6886 63.2035 75.603 36.6596 66.7073 75.7009 36.6756 
72.1218 57.1608 36.6577 58.2057 57.969 36.8393 55.4818 65.5886 36.6535 
71.1543 56.5579 36.9372 65.7467 55.2572 37.1638 61.0387 75.0455 36.9928 
59.5776 56.8716 36.9502 55.8761 69.4644 36.9948 72.2021 73.4146 36.8935 

POLYGONS 170 680
3 0 1 2 
3 3 1 0 
3 4 5 6 
3 7 8 9 
3 10 11 12 
3 13 14 15 
3 2 16 17 
3 18 17 16 
3 5 18 6 
3 7 9 3 
3 19 4 20 
3 14 9 8 
3 15 14 8 
3 11 21 12 
3 10 12 22 
3 23 24 25 
3 23 25 26 
3 4 6 20 
3 14 13 27 
3 28 29 30 
3 29 28 31 
3 26 25 32 
3 9 33 3 
3 14 27 9 
3 13 28 34 
3 35 22 36 
3 37 35 38 
3 26 39 40 
3 41 42 24 
3 26 32 39 
3 43 1 3 
3 9 27 33 
3 28 30 34 
3 41 44 45 
3 46 16 2 
3 2 43 46 
3 3 47 43 
3 33 47 3 
3 27 13 48 
3 37 38 44 
3 38 45 44 
3 29 31 49 
3 49 31 40 
3 40 39 49 
3 13 34 48 
3 35 36 38 
3 45 42 41 
3 25 24 42 
3 25 42 50 
3 2 1 43 
3 20 6 51 
3 12 52 22 
3 19 53 21 
3 54 21 53 
3 21 54 12 
3 12 54 52 
3 52 55 22 
3 55 56 22 
3 19 20 57 
3 57 20 51 
3 48 34 58 
3 25 50 32 
3 46 59 16 
3 51 6 18 
3 22 56 36 
3 18 16 59 
3 60 43 61 
3 47 61 43 
3 59 51 18 
3 62 34 30 
3 63 64 59 
3 46 43 65 
3 60 65 43 
3 66 19 57 
3 66 57 51 
3 67 33 27 
3 68 54 53 
3 67 27 48 
3 69 70 58 
3 69 58 34 
3 62 69 34 
3 55 71 56 
3 29 72 30 
3 73 45 38 
3 74 73 38 
3 75 29 49 
3 73 42 45 
3 42 76 50 
3 77 32 50 
3 65 59 46 
3 65 63 59 
3 64 51 59 
3 78 61 47 
3 79 51 64 
3 53 19 66 
3 79 66 51 
3 66 68 53 
3 70 67 48 
3 70 48 58 
3 68 80 54 
3 52 54 80 
3 55 52 80 
3 72 62 30 
3 39 75 49 
3 76 77 50 
3 78 47 67 
3 67 47 33 
3 80 71 55 
3 36 74 38 
3 73 76 42 
3 60 81 65 
3 65 81 82 
3 60 61 81 
3 73 74 83 
3 63 65 82 
3 63 84 64 
3 61 78 81 
3 79 64 84 
3 56 71 85 
3 36 56 85 
3 39 86 75 
3 36 85 74 
3 73 83 76 
3 28 31 13 
3 3 7 0 
3 26 23 40 
3 40 23 31 
3 31 23 13 
3 23 24 13 
3 13 24 15 
3 24 41 15 
3 0 7 2 
3 4 5 19 
3 7 8 2 
3 22 10 35 
3 5 18 19 
3 18 17 19 
3 41 44 15 
3 35 10 37 
3 15 44 8 
3 8 44 2 
3 21 19 11 
3 19 17 11 
3 11 17 10 
3 10 17 37 
3 37 17 44 
3 2 44 17 
3 67 78 70 
3 83 76 74 
3 76 77 74 
3 74 77 85 
3 72 62 29 
3 29 62 75 
3 62 69 75 
3 85 77 71 
3 71 77 80 
3 80 77 68 
3 68 77 66 
3 39 86 32 
3 32 86 77 
3 77 86 66 
3 82 63 81 
3 63 84 81 
3 84 79 81 
3 66 86 79 
3 79 86 81 
3 78 81 70 
3 81 86 70 
3 75 69 86 
3 70 86 69 

POINT_DATA 87
SCALARS attribute float
LOOKUP_TABLE default
-0.0375616 0.999974 0.909213 1.00348 0.0546199 0.315026 0.986084 0.560228 -0.0297378 
0.995582 0.018862 0.888021 0.998805 0.967294 1.00485 0.0135411 0.997493 -0.11162 
0.971074 -0.0795638 0.989409 1.01334 0.985234 0.622036 0.977405 0.992952 0.952788 
1.00189 0.971818 0.961142 0.98917 0.989691 0.956176 1.00839 1.0003 0.885908 
0.947736 0.919503 1.00006 0.957448 1.00458 0.993544 1.00254 0.968028 0.987603 
1.00118 0.994536 1.00126 1.00291 0.997028 0.981974 0.997388 1.00001 1.04434 
0.998011 1 0.845397 1.00288 0.991461 0.973904 -0.0217218 0.737288 0.150052 
0.919727 0.0367192 0.0541126 0.0676584 -0.00140855 0.62517 0.493432 0.0531851 0.545896 
0.923041 0.162058 0.402831 0.282681 0.133515 0.915697 -0.0635165 0.508637 0.111176 
0.948262 0.995175 0.982715 0.99483 0.995675 0.982811 
