# vtk DataFile Version 3.0
vtk output
ASCII
DATASET POLYDATA
POINTS 74 float
75.644 64.0482 36.6478 75.7059 66.5856 36.679 75.7094 64.9453 42.0885 
56.1127 61.1179 36.6378 57.3665 58.9314 36.6909 57.1527 59.1492 38.5172 
74.6332 59.9599 36.5606 75.6398 63.395 36.6694 75.418 62.2004 38.5262 
74.7608 60.3483 37.0453 55.4818 65.5886 36.6535 55.8751 61.8872 38.7493 
55.4773 65.5012 37.6766 75.7278 66.8414 37.5551 75.2148 69.6791 36.7103 
72.5552 73.0459 36.6886 73.1758 72.4261 37.3142 74.2145 71.3238 36.6422 
57.797 72.1994 37.8093 61.0387 75.0455 36.9928 58.6693 73.0795 36.6819 
72.2021 73.4146 36.8935 68.6049 75.4935 36.6679 69.2312 75.3529 37.5343 
70.7513 74.6887 36.5812 63.2035 75.603 36.6596 63.5418 75.6649 37.5228 
66.7073 75.7009 36.6756 72.1218 57.1608 36.6577 73.3292 58.2242 39.5074 
58.2057 57.969 36.8393 55.598 67.682 36.6728 55.8761 69.4644 36.9948 
71.1543 56.5579 36.9372 55.6828 68.6559 54.6502 64.7705 75.7364 54.6028 
65.7467 55.2572 37.1638 67.8284 55.5001 54.3834 57.8853 58.2366 54.0658 
59.5776 56.8716 36.9502 56.1746 60.8582 54.089 69.0496 75.4245 54.7089 
62.996 55.5884 54.4224 63.0746 55.5797 36.7763 60.0704 56.5754 54.4145 
71.7497 56.9344 50.9715 74.688 60.0433 54.5551 73.9982 71.6332 54.8109 
75.2494 69.5524 54.757 57.0364 71.4132 54.5505 72.7433 72.9244 54.6872 
59.4499 73.8393 54.6117 71.5595 74.0185 54.2234 65.6275 55.3102 54.8249 
75.791 64.6301 54.7057 61.5922 75.2161 54.6359 55.558 63.7518 54.6499 
71.129 56.3833 54.794 72.9207 57.6851 54.6738 74.2105 59.2523 54.686 
59.9525 56.4779 54.8444 62.769 55.5811 54.8104 67.5186 55.4385 54.8134 
56.2415 60.1371 54.7571 75.2109 60.8814 54.7397 55.6223 68.8026 54.7653 
75.457 69.5999 54.7583 57.132 71.5127 54.7806 59.3006 73.6991 54.7842 
71.2368 74.3674 54.7256 61.4952 75.3971 54.7265 57.6815 58.3305 54.7929 
58.2497 57.3352 55.2404 70.4115 75.0259 55.0669 
POLYGONS 144 576
3 0 1 2 
3 3 4 5 
3 6 7 8 
3 6 8 9 
3 10 3 11 
3 10 11 12 
3 0 8 7 
3 13 2 1 
3 1 14 13 
3 15 16 17 
3 18 19 20 
3 21 16 15 
3 22 23 24 
3 25 26 27 
3 22 27 23 
3 28 6 29 
3 30 5 4 
3 10 12 31 
3 31 12 32 
3 20 32 18 
3 25 19 26 
3 28 29 33 
3 6 9 29 
3 0 2 8 
3 12 34 32 
3 26 19 35 
3 36 33 37 
3 30 38 5 
3 38 30 39 
3 3 40 11 
3 40 3 5 
3 26 35 27 
3 23 27 41 
3 42 43 36 
3 42 39 43 
3 44 39 42 
3 33 45 37 
3 38 40 5 
3 46 9 8 
3 11 40 12 
3 14 47 48 
3 32 49 18 
3 17 16 50 
3 47 14 17 
3 50 47 17 
3 18 49 51 
3 51 19 18 
3 16 21 52 
3 24 41 52 
3 23 41 24 
3 52 21 24 
3 36 53 42 
3 45 33 29 
3 29 9 46 
3 54 13 48 
3 13 14 48 
3 32 34 49 
3 16 52 50 
3 51 55 19 
3 19 55 35 
3 37 53 36 
3 8 2 54 
3 12 56 34 
3 2 13 54 
3 40 56 12 
3 39 44 38 
3 46 45 29 
3 46 8 54 
3 27 35 41 
3 45 57 37 
3 45 58 57 
3 59 45 46 
3 44 42 60 
3 61 60 42 
3 62 53 37 
3 62 37 57 
3 38 44 60 
3 58 45 59 
3 40 38 63 
3 64 59 46 
3 49 34 65 
3 66 48 47 
3 67 68 51 
3 51 49 67 
3 50 52 69 
3 70 55 51 
3 69 52 41 
3 53 61 42 
3 60 71 38 
3 71 63 38 
3 64 46 54 
3 56 40 63 
3 63 65 56 
3 66 64 54 
3 34 56 65 
3 66 54 48 
3 65 67 49 
3 68 70 51 
3 70 35 55 
3 70 41 35 
3 71 60 72 
3 69 41 73 
3 6 7 28 
3 19 20 25 
3 25 20 27 
3 20 32 27 
3 14 17 1 
3 17 15 1 
3 1 15 0 
3 32 31 27 
3 31 10 27 
3 10 3 27 
3 3 4 27 
3 24 22 21 
3 22 27 21 
3 27 4 21 
3 36 33 43 
3 43 33 39 
3 39 33 30 
3 4 30 21 
3 30 33 21 
3 28 7 33 
3 33 7 21 
3 15 21 0 
3 7 0 21 
3 72 71 60 
3 70 41 68 
3 65 67 63 
3 67 68 63 
3 68 41 63 
3 66 64 47 
3 63 41 71 
3 71 41 60 
3 60 41 61 
3 61 41 53 
3 73 69 41 
3 41 69 53 
3 69 50 53 
3 57 62 58 
3 58 62 59 
3 53 50 62 
3 62 50 59 
3 59 50 64 
3 47 64 50 

POINT_DATA 74
SCALARS attribute float
LOOKUP_TABLE default
0.493432 0.150052 1.00001 0.62517 0.0676584 0.998276 -0.00140855 0.0531851 1.00083 
0.979635 0.111176 0.999579 0.989031 1.00376 0.923041 0.282681 1.00079 0.961142 
0.994033 0.982715 0.402831 0.982811 0.956176 0.998535 0.957448 0.133515 0.99093 
0.915697 -0.0635165 0.992772 0.508637 0.545896 0.995675 0.948262 0.995727 0.998264 
0.995175 0.996949 0.999947 0.99483 1.00092 0.96483 0.994855 0.919727 0.995769 
1 0.992185 0.900517 0.992232 0.9955 0.968197 0.99713 0.998568 0.879253 
0.998076 0.99465 1.00038 0.833529 0.527504 0.519614 0.632753 0.809154 0.292943 
0.3043 -0.047798 -0.00300952 0.0260173 -0.055509 -0.00553841 -0.0253746 0.0299297 0.267826 
1.00366 0.9611 
