# vtk DataFile Version 3.0
vtk output
ASCII
DATASET POLYDATA
POINTS 71 float
74.2105 59.2523 54.686 75.2109 60.8814 54.7397 74.8751 60.0878 55.4389 
59.3006 73.6991 54.7842 57.132 71.5127 54.7806 57.142 71.6317 55.357 
72.7433 72.9244 54.6872 71.2368 74.3674 54.7256 72.0332 73.592 55.4863 
67.5186 55.4385 54.8134 65.9957 55.6432 58.9824 65.6275 55.3102 54.8249 
71.129 56.3833 54.794 72.9207 57.6851 54.6738 72.9426 57.4339 55.3165 
57.6815 58.3305 54.7929 58.2497 57.3352 55.2404 56.0881 60.6382 55.4053 
56.2415 60.1371 54.7571 75.6559 65.9637 55.7242 55.6223 68.8026 54.7653 
55.6197 68.4797 55.3527 75.457 69.5999 54.7583 75.2849 69.4201 55.4647 
73.9982 71.6332 54.8109 59.5631 73.8798 55.5174 61.4952 75.3971 54.7265 
62.0761 75.5239 55.3002 70.4115 75.0259 55.0669 69.0496 75.4245 54.7089 
62.769 55.5811 54.8104 56.4046 61.7404 58.7021 67.4104 75.6938 61.2508 
61.5563 56.6147 58.6904 59.9525 56.4779 54.8444 69.8573 56.8127 58.7474 
74.0306 60.6445 59.0218 56.1298 69.9575 64.4881 55.4631 65.3485 65.7996 
62.1595 75.3972 64.5327 65.858 55.3124 63.8357 75.817 66.2242 63.8081 
70.3676 56.1082 64.1849 56.1128 61.0216 63.5246 60.801 56.031 63.3146 
73.2167 58.4911 63.1106 74.9352 60.6748 64.9011 74.6721 70.7475 64.3222 
69.8063 75.164 63.8608 58.0346 72.505 65.0495 59.3416 57.9926 66.3347 
68.1788 56.1494 66.6376 75.1536 65.0213 67.1299 70.2934 73.6394 67.5132 
65.6982 75.1638 67.1401 62.6039 73.4425 68.8926 63.905 56.5022 67.4168 
70.1709 59.3836 69.6745 56.6465 63.21 67.7013 73.5175 69.9033 68.0034 
72.6235 62.5147 69.5177 58.654 70.3024 68.7585 67.0553 60.0375 71.4078 
62.1109 60.9819 71.5487 72.0673 66.1485 70.7943 58.3237 64.8847 69.9784 
68.4867 70.2087 71.8222 61.1747 66.0004 72.2245 62.4373 69.6979 71.8714 
68.8994 63.2106 72.2727 66.6835 65.9561 72.9553 
POLYGONS 138 552
3 0 1 2 
3 3 4 5 
3 6 7 8 
3 9 10 11 
3 12 13 14 
3 2 14 13 
3 15 16 17 
3 18 15 17 
3 13 0 2 
3 19 2 1 
3 20 18 17 
3 20 17 21 
3 1 22 19 
3 23 19 22 
3 20 21 4 
3 4 21 5 
3 22 24 23 
3 3 5 25 
3 24 6 8 
3 26 3 25 
3 26 25 27 
3 28 8 7 
3 29 26 27 
3 29 27 28 
3 11 10 30 
3 9 12 10 
3 31 21 17 
3 27 32 28 
3 30 33 34 
3 12 35 10 
3 33 16 34 
3 12 14 35 
3 14 2 36 
3 16 31 17 
3 36 2 19 
3 37 25 5 
3 33 30 10 
3 31 16 33 
3 14 36 35 
3 31 38 21 
3 37 5 21 
3 8 23 24 
3 27 39 32 
3 33 10 40 
3 19 23 41 
3 25 39 27 
3 28 32 8 
3 42 10 35 
3 43 38 31 
3 33 40 44 
3 10 42 40 
3 42 35 45 
3 31 33 44 
3 35 36 45 
3 46 45 36 
3 46 36 19 
3 8 47 23 
3 8 48 47 
3 48 8 32 
3 31 44 43 
3 38 37 21 
3 25 37 49 
3 25 49 39 
3 44 50 43 
3 19 41 46 
3 41 23 47 
3 42 51 40 
3 46 41 52 
3 53 47 48 
3 32 39 54 
3 32 54 48 
3 46 42 45 
3 55 39 49 
3 44 40 56 
3 56 50 44 
3 42 46 57 
3 43 50 58 
3 58 38 43 
3 47 52 41 
3 59 52 47 
3 47 53 59 
3 54 53 48 
3 56 40 51 
3 42 57 51 
3 60 46 52 
3 38 61 37 
3 37 61 49 
3 61 55 49 
3 39 55 54 
3 51 62 56 
3 57 62 51 
3 50 63 58 
3 60 57 46 
3 60 52 64 
3 58 65 38 
3 38 65 61 
3 64 52 59 
3 55 66 54 
3 66 53 54 
3 56 63 50 
3 58 63 65 
3 59 53 66 
3 62 63 56 
3 61 65 67 
3 66 64 59 
3 61 67 68 
3 61 68 55 
3 68 66 55 
3 62 57 69 
3 57 60 69 
3 65 63 67 
3 69 60 64 
3 62 70 63 
3 70 67 63 
3 69 70 62 
3 69 64 70 
3 64 66 70 
3 70 68 67 
3 70 66 68 
3 16 34 15 
3 26 3 29 
3 20 18 4 
3 4 18 3 
3 3 18 29 
3 22 24 1 
3 18 15 29 
3 15 34 29 
3 34 30 29 
3 30 11 29 
3 28 29 7 
3 29 11 7 
3 7 11 6 
3 12 13 9 
3 13 0 9 
3 11 9 6 
3 9 0 6 
3 0 1 6 
3 24 6 1 

POINT_DATA 71
SCALARS attribute float
LOOKUP_TABLE default
0.519614 -0.047798 0.990437 -0.00553841 -0.055509 0.991125 0.968197 -0.0253746 1.0005 
0.292943 1 0.879253 0.833529 0.527504 1.00686 0.267826 1.00366 0.979825 
0.3043 1.01039 -0.00300952 0.988571 0.0260173 0.996389 0.900517 1.00244 0.0299297 
0.961897 0.9611 0.96483 0.809154 1 1 1 0.632753 1 
1 1 1 1 1 1 1 1 1 
1 1 1 1 1 1 1 1 1 
1 1 1 1 1 1 1 1 1 
1 1 1 1 1 1 1 1 
