# vtk DataFile Version 3.0
vtk output
ASCII
DATASET POLYDATA
POINTS 143 float
14.0173 -21.1808 0.70385 13.6684 -21.0799 3.18867 12.7479 -20.8156 0.647399 
7.5295 7.57951 0.570543 6.13267 6.22118 0.654705 6.8993 7.00011 1.83382 
8.32429 8.24778 0.676185 18.0289 -21.2291 4.70152 15.6137 -21.2919 0.564557 
10.8622 -20.358 0.673491 39.7238 -15.8287 0.658707 40.3511 -14.2766 0.661573 
39.7295 -14.2178 6.01854 40.262 -3.95661 0.656745 39.7576 -10.5592 4.16017 
40.7536 -11.4525 0.665722 2.1458 -0.288644 0.653622 1.66468 -1.70599 0.659036 
2.17246 0.093204 1.69778 2.78797 1.27945 0.606785 39.3171 2.30299 0.659153 
39.7474 -0.160043 0.655962 3.5551 2.74475 0.65154 23.1057 -21.4318 0.665256 
17.8258 -21.5729 0.703986 26.8493 -21.3035 0.690889 3.65957 2.92256 0.832914 
38.822 4.12232 0.67401 36.8476 6.57071 5.84444 38.3426 5.51992 0.741305 
5.54092 5.65168 1.24235 37.6731 7.26761 0.56896 38.0202 -17.989 0.766935 
38.0062 -17.981 6.22553 35.9184 -19.3448 0.653606 38.9667 -16.9431 0.655099 
1.18966 -3.87547 0.640789 1.09017 -9.20392 0.674445 1.12947 -9.52385 10.6274 
1.16549 -3.39184 0.755769 36.8409 8.6549 0.654492 9.83959 9.16684 0.681341 
35.5867 10.0277 0.744644 15.4664 11.4184 0.666421 13.3635 10.6748 0.619815 
18.5563 10.8049 8.06866 30.6436 -19.8769 7.52694 30.8965 -20.8264 0.664821 
4.49925 -16.6145 10.821 4.99198 -16.9226 0.652105 6.5453 -18.1003 0.697152 
3.14809 1.62251 9.64635 5.64571 5.69954 11.8187 4.69651 4.53261 0.688376 
18.8599 12.1984 0.674034 33.6186 11.6863 0.683501 31.2758 12.2417 6.46602 
20.8277 12.6171 0.646605 26.5284 12.4388 6.43086 32.3532 12.3753 0.690726 
25.0039 13.0848 0.878599 9.52576 -19.9541 0.685877 8.98925 8.6848 9.39726 
32.9221 -20.4074 0.678811 35.2792 -19.8727 10.9997 37.173 -3.40291 9.21307 
35.1115 -19.7483 0.604839 1.6882 -2.91748 8.4194 14.8724 10.2932 11.2407 
2.20241 -13.3182 1.16542 35.0828 10.1243 12.1552 39.7747 -18.4881 14.0971 
1.86874 -12.8483 13.2829 36.9944 -0.212629 11.7754 14.9352 -19.9639 10.9927 
7.30409 -17.1525 16.6922 29.7513 12.4441 14.371 29.1106 -18.9757 11.6804 
40.3429 -13.553 14.1636 36.6651 5.66623 15.3211 24.5094 -17.6339 15.2716 
1.98265 -7.09191 15.3087 39.4815 -5.90646 17.5807 25.0937 12.1987 16.8079 
13.1364 -18.4595 16.9851 2.37378 -14.211 19.8587 4.2005 -1.49358 19.7018 
9.71144 9.85305 19.8062 31.9348 9.8687 19.7392 1.61948 -11.8287 19.8017 
4.93326 1.53511 19.7886 16.2173 12.2962 19.5138 27.8352 11.4962 19.0433 
35.2053 -19.6696 19.9262 8.27117 8.51942 19.8691 16.3642 -17.8401 19.0565 
34.3861 7.96154 19.8129 39.3556 -13.9605 19.8527 10.0338 -17.9061 19.8256 
1.59822 -9.2794 19.8104 2.05455 -7.44851 19.807 11.9679 11.0168 19.8336 
37.7991 -18.2804 19.7459 37.0896 -19.0908 19.9043 4.14649 -16.0667 19.8202 
37.947 1.69065 19.807 39.1287 -16.2885 19.1467 12.1626 -18.5719 19.8562 
39.3008 -8.71781 19.8213 32.9127 -19.2333 19.8221 18.6561 -17.5321 19.8514 
3.10217 -4.04657 19.8289 13.8189 -18.3062 19.8856 30.454 -18.364 19.917 
27.773 -17.4752 19.7778 8.27315 -17.6013 19.8478 6.53971 -17.1897 19.8255 
22.4599 -17.0794 19.782 38.5915 -1.66039 19.7961 5.27289 2.83041 19.84 
5.99098 4.57535 19.8197 36.7097 4.85416 19.827 6.80529 6.25733 19.821 
36.3107 5.61213 19.826 29.1591 10.9683 19.8229 3.60483 -2.55814 19.8184 
4.43013 -0.10358 19.8548 32.7197 9.31835 19.8794 26.1305 11.9738 19.7388 
15.6638 -17.8844 19.7661 38.7865 -16.6191 19.8604 23.0348 -16.9854 19.8903 
1.60534 -13.0748 19.9902 38.9329 -5.0057 19.9222 37.3032 3.35706 19.8784 
35.6268 6.56627 19.9009 30.6167 10.6136 20.0202 27.4436 11.4687 19.9186 
13.9569 11.5288 19.8803 16.8182 12.1341 19.8464 24.9181 12.0531 19.8478 
8.36373 -17.8733 20.4605 39.0878 -14.2956 20.473 
POLYGONS 282 1128
3 0 1 2 
3 3 4 5 
3 3 5 6 
3 0 7 1 
3 8 7 0 
3 2 1 9 
3 10 11 12 
3 13 14 15 
3 16 17 18 
3 19 16 18 
3 20 14 21 
3 22 19 18 
3 23 7 24 
3 23 25 7 
3 15 12 11 
3 14 13 21 
3 18 26 22 
3 20 27 28 
3 27 29 28 
3 30 5 4 
3 31 28 29 
3 32 33 34 
3 35 10 33 
3 20 28 14 
3 24 7 8 
3 32 35 33 
3 12 33 10 
3 12 15 14 
3 36 37 38 
3 17 39 18 
3 31 40 28 
3 6 5 41 
3 40 42 28 
3 43 44 45 
3 25 46 7 
3 47 46 25 
3 48 49 50 
3 18 51 26 
3 52 30 53 
3 38 39 36 
3 43 45 54 
3 42 55 56 
3 57 54 58 
3 56 55 59 
3 60 58 59 
3 48 50 61 
3 44 41 62 
3 60 57 58 
3 59 58 56 
3 63 46 47 
3 1 61 9 
3 63 64 46 
3 28 65 14 
3 41 5 62 
3 66 64 63 
3 64 66 34 
3 39 67 18 
3 26 51 52 
3 53 26 52 
3 52 5 30 
3 44 62 68 
3 54 45 58 
3 34 33 64 
3 48 69 49 
3 18 67 51 
3 70 28 42 
3 33 12 71 
3 69 72 37 
3 37 72 38 
3 65 28 73 
3 7 74 1 
3 12 14 65 
3 44 68 45 
3 48 61 75 
3 38 67 39 
3 58 76 56 
3 46 77 7 
3 61 1 75 
3 52 62 5 
3 42 56 70 
3 71 12 78 
3 69 48 72 
3 78 12 65 
3 58 45 76 
3 1 74 75 
3 73 28 79 
3 77 46 64 
3 7 77 80 
3 64 33 71 
3 72 67 38 
3 28 70 79 
3 56 76 70 
3 7 80 74 
3 81 51 67 
3 65 73 82 
3 68 76 45 
3 83 76 68 
3 78 65 82 
3 74 84 75 
3 74 80 84 
3 72 48 85 
3 81 86 51 
3 62 52 87 
3 76 88 70 
3 72 89 67 
3 90 52 51 
3 68 62 91 
3 68 91 83 
3 76 83 92 
3 64 93 77 
3 94 87 52 
3 80 95 84 
3 48 75 85 
3 89 81 67 
3 96 70 88 
3 64 71 93 
3 80 77 93 
3 78 97 71 
3 73 79 82 
3 86 90 51 
3 96 79 70 
3 75 84 98 
3 97 78 82 
3 99 100 81 
3 90 94 52 
3 62 101 91 
3 88 76 92 
3 71 102 103 
3 75 104 85 
3 72 85 89 
3 89 99 81 
3 79 105 82 
3 103 93 71 
3 106 102 71 
3 98 84 107 
3 97 82 108 
3 81 100 86 
3 87 101 62 
3 80 93 109 
3 80 110 95 
3 100 111 86 
3 84 112 107 
3 84 95 112 
3 80 113 114 
3 115 75 98 
3 115 116 75 
3 80 117 110 
3 80 114 117 
3 75 116 104 
3 97 106 71 
3 118 82 105 
3 119 120 90 
3 79 121 105 
3 122 94 90 
3 79 96 123 
3 88 92 124 
3 80 109 113 
3 108 82 118 
3 86 111 125 
3 126 90 86 
3 121 79 123 
3 90 120 122 
3 127 96 88 
3 128 92 83 
3 83 91 128 
3 110 129 95 
3 130 102 106 
3 117 114 131 
3 97 130 106 
3 89 85 132 
3 133 108 118 
3 134 105 121 
3 135 123 96 
3 88 124 136 
3 137 124 92 
3 138 91 101 
3 138 139 91 
3 128 137 92 
3 139 140 128 
3 139 128 91 
3 112 95 129 
3 111 100 125 
3 107 141 98 
3 115 98 141 
3 116 115 141 
3 131 114 113 
3 130 97 142 
3 97 108 142 
3 89 132 99 
3 102 130 103 
3 116 141 104 
3 90 126 119 
3 88 136 127 
3 134 121 123 
3 137 136 124 
3 130 142 103 
3 69 49 37 
3 37 49 36 
3 49 50 36 
3 50 61 36 
3 32 35 34 
3 35 10 34 
3 10 11 34 
3 11 15 34 
3 15 13 34 
3 13 21 34 
3 39 36 17 
3 36 61 17 
3 59 60 55 
3 55 60 42 
3 60 57 42 
3 42 57 40 
3 40 57 31 
3 31 57 29 
3 29 57 27 
3 27 57 20 
3 20 57 21 
3 21 57 34 
3 0 8 2 
3 57 54 34 
3 54 43 34 
3 43 44 34 
3 44 41 34 
3 61 9 17 
3 9 2 17 
3 2 8 17 
3 8 24 17 
3 24 23 17 
3 23 25 17 
3 25 47 17 
3 41 6 34 
3 17 47 16 
3 16 47 19 
3 19 47 22 
3 47 63 22 
3 63 66 22 
3 30 53 4 
3 53 26 4 
3 4 26 3 
3 6 3 34 
3 3 26 34 
3 34 26 66 
3 22 66 26 
3 103 93 142 
3 93 109 142 
3 142 109 108 
3 109 113 108 
3 113 131 108 
3 108 131 133 
3 133 131 118 
3 132 99 85 
3 85 99 104 
3 104 99 141 
3 141 99 107 
3 118 131 105 
3 99 100 107 
3 100 125 107 
3 107 125 112 
3 112 125 129 
3 129 125 110 
3 110 125 117 
3 128 137 140 
3 136 127 137 
3 87 101 94 
3 94 101 122 
3 101 138 122 
3 138 139 122 
3 139 140 122 
3 122 140 120 
3 127 96 137 
3 96 135 137 
3 140 137 120 
3 137 135 120 
3 105 131 134 
3 134 131 123 
3 120 135 119 
3 119 135 126 
3 125 86 117 
3 86 126 117 
3 126 135 117 
3 123 131 135 
3 117 135 131 

POINT_DATA 143
SCALARS attribute float
LOOKUP_TABLE default
0.503515 1.01285 0.707762 0.93289 0.827719 0.994445 0.621337 1 0.925357 
0.894915 0.955482 0.833153 1 0.846645 1 0.814754 0.655494 0.955671 
1.02519 0.825891 0.906623 0.805209 -0.176669 0.685156 0.889851 0.914813 0.940873 
0.5798 1 0.778642 1.01208 0.906724 0.320359 1 0.883178 0.850103 
0.874014 0.880852 1 0.981403 0.910277 0.919303 1.00689 0.934642 0.893214 
1 1 0.820305 1 0.932011 0.848256 1 1 0.893498 
0.886319 0.865337 1 0.899825 1 0.912092 0.972394 0.95704 1 
0.861974 1 1 0.94154 1 1 0.99952 1 1 
1 1 1 1 1 1 1 1 1 
1 1 1 1 0.929752 0.965054 0.974569 0.950393 0.822675 
0.922778 1.00522 1.00965 0.928216 0.918853 0.999571 0.922112 0.887559 0.796757 
0.80636 0.818744 0.893598 0.728932 0.924929 0.659448 0.895833 1.02403 0.945159 
0.733809 0.884614 0.576974 0.314347 0.783801 0.830641 0.685448 0.33311 0.418507 
0.757926 0.711547 0.811143 0.622071 0.795967 0.774659 0.916822 0.424714 0.640969 
0.738407 0.803592 0.70897 0.673307 0.756206 0.858091 0.76432 0.90641 0.85489 
0.898445 0.943337 0.685883 0.511436 0.429337 0.435612 0.997777 0.99788 
