# vtk DataFile Version 3.0
vtk output
ASCII
DATASET POLYDATA
POINTS 165 float
18.6561 -17.5321 19.8514 19.0996 -17.7364 21.0959 15.6638 -17.8844 19.7661 
24.9181 12.0531 19.8478 24.7146 11.6908 21.3556 26.1305 11.9738 19.7388 
22.4599 -17.0794 19.782 30.454 -18.364 19.917 26.0933 -16.2204 22.932 
23.0348 -16.9854 19.8903 1.59822 -9.2794 19.8104 3.69533 -3.14041 24.0369 
2.05455 -7.44851 19.807 3.60483 -2.55814 19.8184 4.2005 -1.49358 19.7018 
4.43013 -0.10358 19.8548 37.947 1.69065 19.807 37.3032 3.35706 19.8784 
38.1274 -2.97589 22.736 38.5915 -1.66039 19.7961 5.99098 4.57535 19.8197 
6.41506 6.00811 23.7471 6.80529 6.25733 19.821 32.7197 9.31835 19.8794 
30.6167 10.6136 20.0202 34.4957 8.68949 24.1383 16.8182 12.1341 19.8464 
13.9569 11.5288 19.8803 17.7241 11.8259 21.7979 27.4436 11.4687 19.9186 
4.14649 -16.0667 19.8202 8.36373 -17.8733 20.4605 3.50959 -16.1369 23.2883 
2.37378 -14.211 19.8587 38.9329 -5.0057 19.9222 5.27289 2.83041 19.84 
11.9679 11.0168 19.8336 35.2053 -19.6696 19.9262 35.4885 -16.3121 26.6049 
32.9127 -19.2333 19.8221 39.0878 -14.2956 20.473 39.3008 -8.71781 19.8213 
38.5757 -11.8541 24.01 1.60534 -13.0748 19.9902 1.81792 -11.6382 22.948 
12.1626 -18.5719 19.8562 9.26434 -17.6262 24.2834 13.8189 -18.3062 19.8856 
8.27117 8.51942 19.8691 35.6268 6.56627 19.9009 34.3861 7.96154 19.8129 
9.71144 9.85305 19.8062 16.5644 10.0136 26.48 25.0794 10.1202 25.9306 
37.0896 -19.0908 19.9043 32.6206 -16.5833 27.8752 36.3107 5.61213 19.826 
37.2592 -15.5985 25.5427 37.9011 2.4289 26.3637 12.5593 9.0272 27.0522 
14.2483 -16.5301 27.7281 6.87287 -16.3495 27.0571 21.7589 -13.621 28.4454 
4.15356 -12.8907 26.8946 40.2302 -9.80815 28.3215 29.6726 9.23765 27.8105 
9.50059 6.99643 28.8247 39.3914 -13.7513 26.9574 4.87027 -6.7474 28.4483 
6.96632 2.41336 28.8516 34.9877 6.07789 29.4216 20.2869 -14.563 29.9093 
39.3117 -19.1807 30.419 42.3379 -16.4433 30.5366 3.17138 -10.6269 28.7805 
12.0518 -17.4122 29.3394 38.5962 -2.71631 31.6562 20.0127 11.4393 31.2536 
4.24083 -16.4241 29.6292 25.9386 11.3752 31.8823 5.65283 -19.6337 31.8397 
11.8018 9.05485 34.4543 44.4799 -14.9306 33.0105 32.0259 9.90277 34.258 
-1.13539 -14.1083 31.7439 8.2269 7.00945 33.5798 10.8237 -22.6157 34.601 
31.3966 -19.6704 32.0878 -0.759178 -17.6863 33.419 25.4722 -17.2695 32.4579 
-1.90702 -9.0249 32.6177 5.34203 2.52203 32.8324 36.4262 5.58959 32.0011 
44.8841 -8.07094 34.9806 42.5396 -21.4123 35.4976 25.9366 10.9465 35.4975 
6.09703 -22.2126 35.5753 19.3915 -19.929 34.8067 22.312 -20.5124 35.9055 
0.24772 0.435894 35.0463 38.9105 5.86436 35.0085 28.5582 -24.2927 35.6005 
-0.884719 -18.9243 35.1286 41.7582 0.172044 34.5786 -3.45469 -13.2479 35.545 
16.066 9.43826 36.1471 36.6525 -24.6057 36.6512 -3.34506 -6.99299 35.8383 
35.1264 8.16809 36.5598 44.1385 -1.44907 38.9996 46.4442 -11.5128 38.9837 
8.34837 7.42124 38.9898 44.7879 -19.0441 38.9922 45.7822 -16.0408 39.0282 
13.3953 7.39667 38.9783 45.6363 -5.99014 39.0245 45.0254 -3.81642 39.0223 
42.6244 0.809453 38.9979 41.1189 2.36335 39.004 36.7727 5.42086 38.8812 
2.10476 3.95477 38.9854 4.07744 5.45103 39.0151 20.4467 5.80711 38.9046 
34.2428 -24.8955 38.9973 41.1891 -23.6491 38.9889 42.6687 -22.4873 38.9766 
2.90823 -20.9692 39.0005 18.7205 -20.531 38.9855 16.7209 -21.1307 39.0586 
-1.36341 -16.3911 39.0151 -0.438383 -18.3151 39.0116 -2.69768 -11.5435 39.014 
-1.33284 -1.30203 39.0428 -0.614367 0.331188 39.0053 1.25646 3.11016 39.0391 
24.9432 5.82439 38.9811 27.8559 6.52091 38.9861 38.4079 -24.7739 38.9951 
26.5955 -23.7371 38.9872 12.4805 -21.6328 38.9865 4.86272 -21.5387 38.9896 
43.9476 -20.9958 39.0334 1.28856 -20.1131 38.9188 -2.58741 -4.9246 38.6394 
-1.92584 -2.86108 38.9931 0.137179 1.69318 39.0326 39.8591 3.41646 38.974 
5.59552 6.32729 39.0492 18.8344 6.35142 38.9966 16.1191 6.96437 38.9994 
28.9344 -24.5908 39.0194 25.1732 -22.9793 39.0207 13.7469 -21.6189 39.0067 
24.1208 -22.2544 38.9812 22.9616 -21.4306 39.0765 20.6188 -20.4747 39.0326 
-2.11996 -14.081 39.0229 46.1454 -7.79972 39.0359 30.9722 6.88113 39.0291 
39.8759 -24.239 39.0034 8.0807 -21.7116 39.091 46.3178 -13.2674 38.9975 
-2.55595 -5.14416 39.0349 37.9043 4.59183 39.0555 11.5365 7.72717 39.0129 

POLYGONS 326 1304
3 0 1 2 
3 3 4 5 
3 0 6 1 
3 7 8 9 
3 10 11 12 
3 12 11 13 
3 14 11 15 
3 16 17 18 
3 16 18 19 
3 20 21 22 
3 23 24 25 
3 26 27 28 
3 5 4 29 
3 3 26 4 
3 26 28 4 
3 9 8 6 
3 30 31 32 
3 33 30 32 
3 34 19 18 
3 35 21 20 
3 27 36 28 
3 37 38 39 
3 40 41 42 
3 42 41 34 
3 43 44 10 
3 11 35 15 
3 45 46 31 
3 2 1 47 
3 6 8 1 
3 32 43 33 
3 13 11 14 
3 21 48 22 
3 25 49 50 
3 51 48 21 
3 25 50 23 
3 4 24 29 
3 36 52 28 
3 4 28 53 
3 37 54 38 
3 7 55 8 
3 44 11 10 
3 11 21 35 
3 49 25 56 
3 54 40 57 
3 40 42 57 
3 17 56 18 
3 56 25 58 
3 51 59 36 
3 47 60 45 
3 1 60 47 
3 7 39 55 
3 31 46 32 
3 42 34 18 
3 59 52 36 
3 46 45 60 
3 32 44 43 
3 24 4 53 
3 46 61 32 
3 54 57 38 
3 8 62 1 
3 44 32 63 
3 56 58 18 
3 53 25 24 
3 28 52 53 
3 18 58 64 
3 25 53 65 
3 55 39 38 
3 61 63 32 
3 21 66 51 
3 46 60 61 
3 67 57 42 
3 63 68 44 
3 44 68 11 
3 11 69 21 
3 51 66 59 
3 55 62 8 
3 62 60 1 
3 42 18 64 
3 11 68 69 
3 57 67 38 
3 67 42 64 
3 21 69 66 
3 70 25 65 
3 62 71 60 
3 70 58 25 
3 67 72 38 
3 67 73 72 
3 63 74 68 
3 60 75 61 
3 60 71 75 
3 58 76 64 
3 70 76 58 
3 53 52 77 
3 78 63 61 
3 74 63 78 
3 53 77 79 
3 75 80 61 
3 61 80 78 
3 81 59 66 
3 72 55 38 
3 73 67 82 
3 67 64 82 
3 59 81 52 
3 83 65 53 
3 84 74 78 
3 69 85 66 
3 80 75 86 
3 72 87 55 
3 88 84 78 
3 71 62 89 
3 84 90 74 
3 68 74 91 
3 68 91 69 
3 69 91 85 
3 81 66 85 
3 92 70 65 
3 92 65 83 
3 80 88 78 
3 87 89 55 
3 55 89 62 
3 82 64 93 
3 76 70 92 
3 94 72 73 
3 74 90 91 
3 77 52 81 
3 83 53 79 
3 79 77 95 
3 76 93 64 
3 86 96 80 
3 71 97 75 
3 71 89 98 
3 71 98 97 
3 90 99 91 
3 100 92 83 
3 72 101 87 
3 101 89 87 
3 86 75 97 
3 88 80 102 
3 103 93 76 
3 92 103 76 
3 100 103 92 
3 94 73 82 
3 84 104 90 
3 91 99 85 
3 77 81 105 
3 77 105 95 
3 95 83 79 
3 72 94 106 
3 102 80 96 
3 88 102 104 
3 88 104 84 
3 104 107 90 
3 107 99 90 
3 101 98 89 
3 108 100 83 
3 106 101 72 
3 109 93 103 
3 109 103 100 
3 97 98 86 
3 110 82 93 
3 81 85 111 
3 83 95 108 
3 94 82 112 
3 113 112 82 
3 105 81 114 
3 115 93 116 
3 117 100 118 
3 100 108 119 
3 85 120 121 
3 95 105 122 
3 106 123 101 
3 106 94 124 
3 125 124 94 
3 102 96 126 
3 86 127 128 
3 86 98 127 
3 129 102 130 
3 102 129 104 
3 104 131 107 
3 93 115 110 
3 93 109 116 
3 107 132 133 
3 107 133 99 
3 100 117 109 
3 99 134 120 
3 99 120 85 
3 121 111 85 
3 95 122 135 
3 135 136 95 
3 106 124 137 
3 101 138 98 
3 96 86 139 
3 139 140 96 
3 141 125 94 
3 142 130 102 
3 131 143 107 
3 144 107 143 
3 107 144 132 
3 145 134 99 
3 118 100 146 
3 100 119 146 
3 111 121 147 
3 105 148 122 
3 149 148 105 
3 105 114 149 
3 101 123 150 
3 137 123 106 
3 101 150 138 
3 98 138 151 
3 86 152 139 
3 128 152 86 
3 98 153 154 
3 96 140 126 
3 142 102 126 
3 98 155 127 
3 98 154 155 
3 104 156 131 
3 82 110 113 
3 110 115 157 
3 99 133 145 
3 158 119 108 
3 81 111 114 
3 158 95 136 
3 108 95 158 
3 137 124 159 
3 98 151 153 
3 140 139 160 
3 94 112 141 
3 129 156 104 
3 161 113 110 
3 131 162 143 
3 162 144 143 
3 163 146 119 
3 158 163 119 
3 164 114 111 
3 115 116 157 
3 146 163 118 
3 148 149 122 
3 153 151 154 
3 144 162 132 
3 120 134 121 
3 134 145 133 
3 127 152 128 
3 54 40 37 
3 37 40 39 
3 40 41 39 
3 39 41 7 
3 7 41 9 
3 41 34 9 
3 34 19 9 
3 43 33 10 
3 33 30 10 
3 30 31 10 
3 31 45 10 
3 19 16 9 
3 10 45 12 
3 12 45 13 
3 45 47 13 
3 47 2 13 
3 2 0 13 
3 0 6 13 
3 5 3 29 
3 24 29 23 
3 51 48 36 
3 48 22 36 
3 36 22 27 
3 27 22 26 
3 26 22 3 
3 22 20 3 
3 23 29 50 
3 50 29 49 
3 3 20 29 
3 29 20 49 
3 16 17 9 
3 17 56 9 
3 20 35 49 
3 35 15 49 
3 13 6 14 
3 14 6 15 
3 15 6 49 
3 56 49 9 
3 6 9 49 
3 158 163 136 
3 163 118 136 
3 130 129 142 
3 142 129 126 
3 126 129 140 
3 140 129 160 
3 160 129 139 
3 129 156 139 
3 156 131 139 
3 131 162 139 
3 162 132 139 
3 136 118 135 
3 141 125 112 
3 125 124 112 
3 112 124 113 
3 134 121 133 
3 111 164 147 
3 164 114 147 
3 124 159 113 
3 113 159 161 
3 159 137 161 
3 137 123 161 
3 123 150 161 
3 150 138 161 
3 161 138 110 
3 110 138 157 
3 157 138 116 
3 116 138 109 
3 109 138 117 
3 117 138 118 
3 118 138 135 
3 135 138 122 
3 122 138 149 
3 149 138 114 
3 114 138 147 
3 132 133 139 
3 133 121 139 
3 121 147 139 
3 139 147 152 
3 152 147 127 
3 127 147 155 
3 155 147 154 
3 147 138 154 
3 138 151 154 

POINT_DATA 165
SCALARS attribute float
LOOKUP_TABLE default
0.576974 1.00977 0.673307 0.435612 1.00533 0.70897 0.757926 0.830641 1 
0.858091 0.80636 1 0.818744 0.640969 0.965054 0.738407 0.895833 0.85489 
1 0.711547 0.622071 1 0.774659 0.803592 0.943337 1 0.429337 
0.511436 1 0.685883 0.659448 0.997777 1 0.929752 0.90641 0.811143 
0.893598 0.928216 1 0.884614 0.99788 0.733809 1 0.76432 1 
0.945159 1 0.783801 0.918853 0.898445 0.922112 0.974569 1 1 
0.924929 1 0.916822 1 1 1 1 1 1 
1 1 1 1 1 1 1 1 1 
1 1 1 1 1 1 1 1 1 
1 1 1 1 1 1 1 1 1 
1 1 1 1 1 1 1 1 1 
1 1 1 1 1 1 1 1 1 
1 0.938996 0.940451 0.926854 0.920034 0.847181 0.894761 0.793284 0.859058 
0.879951 0.828472 0.992274 0.887658 0.902258 0.930343 0.654629 0.870355 0.894507 
0.669583 0.9559 0.886433 0.859623 0.840998 0.865339 0.931148 0.938108 0.945556 
0.853652 0.924779 0.850904 0.826952 0.822683 0.904907 0.952821 0.722058 0.997218 
0.833334 0.693611 0.711666 0.907624 0.867646 0.904968 0.817484 0.806496 0.939233 
0.495621 0.845953 0.873156 0.893008 0.905984 0.804813 0.714206 0.748628 0.720543 
0.901044 0.827529 0.732169 
