# vtk DataFile Version 3.0
vtk output
ASCII
DATASET POLYDATA
POINTS 115 float
34.2428 -24.8955 38.9973 38.901 -24.303 41.6831 28.9344 -24.5908 39.0194 
38.4079 -24.7739 38.9951 39.8759 -24.239 39.0034 -0.943998 -17.0783 44.9453 
-1.36341 -16.3911 39.0151 -0.438383 -18.3151 39.0116 24.9432 5.82439 38.9811 
20.4467 5.80711 38.9046 23.8904 3.17736 41.1574 30.9722 6.88113 39.0291 
35.3958 3.92274 41.3315 37.9043 4.59183 39.0555 27.8559 6.52091 38.9861 
30.2874 3.82284 41.7407 41.1891 -23.6491 38.9889 28.7264 -22.9778 41.2338 
26.5955 -23.7371 38.9872 42.6687 -22.4873 38.9766 25.1732 -22.9793 39.0207 
45.7822 -16.0408 39.0282 46.3178 -13.2674 38.9975 47.8701 -9.61093 42.5667 
46.4442 -11.5128 38.9837 46.1454 -7.79972 39.0359 45.0254 -3.81642 39.0223 
45.9252 -0.233897 43.4779 41.1189 2.36335 39.004 41.3375 2.65027 42.2623 
16.1191 6.96437 38.9994 13.2697 6.84075 41.4956 11.5365 7.72717 39.0129 
8.34837 7.42124 38.9898 13.3953 7.39667 38.9783 23.4224 -19.3603 43.0477 
22.9616 -21.4306 39.0765 43.9476 -20.9958 39.0334 12.4805 -21.6328 38.9865 
13.7469 -21.6189 39.0067 9.91745 -20.6746 44.3042 4.86272 -21.5387 38.9896 
2.13149 -19.1716 44.3557 2.90823 -20.9692 39.0005 20.6188 -20.4747 39.0326 
1.28856 -20.1131 38.9188 18.7205 -20.531 38.9855 18.85 -18.4363 43.2703 
47.5003 -12.5526 44.197 44.7879 -19.0441 38.9922 -2.69768 -11.5435 39.014 
-2.96671 -14.168 43.756 -2.55595 -5.14416 39.0349 44.1385 -1.44907 38.9996 
42.6244 0.809453 38.9979 8.0807 -21.7116 39.091 -2.11996 -14.081 39.0229 
5.59552 6.32729 39.0492 9.12489 8.48464 45.4483 -3.45903 -2.82006 45.0845 
-1.33284 -1.30203 39.0428 21.2797 3.22216 44.4468 4.07744 5.45103 39.0151 
3.67935 8.04634 44.5398 -3.55411 -9.96279 43.5827 1.25646 3.11016 39.0391 
-0.614367 0.331188 39.0053 -1.2714 3.32346 44.5353 36.0211 -20.1418 46.7415 
42.3082 -19.7185 44.3781 29.8835 -19.3563 44.4765 46.025 -13.8094 46.554 
14.8866 -18.1009 46.1415 47.3945 -6.29599 45.6263 14.4531 7.04689 48.3349 
24.1172 -17.8531 47.5109 26.9381 1.64027 47.4017 37.681 3.75979 48.9378 
33.3632 3.78401 47.701 38.5335 -19.7157 46.6473 -1.79307 0.00748461 48.7172 
1.36257 5.87524 47.6935 9.22526 -17.4952 47.5836 -2.41607 -7.64935 47.8964 
45.6351 -7.94842 51.0212 38.0516 -17.2073 50.5272 42.6074 1.64468 50.8723 
22.8295 1.23423 49.4292 5.244 7.69451 49.2981 10.6361 7.45216 49.9765 
8.09112 -14.0066 51.4749 42.162 -12.9675 51.565 45.2971 -2.67889 51.0466 
19.8624 1.72906 52.6074 27.7498 -15.7796 52.1728 11.4079 -16.3636 50.5788 
8.91255 -9.58161 54.0329 2.92686 -4.1822 52.1483 5.07295 5.43156 51.8359 
17.3064 -13.9752 53.5979 30.4422 1.2246 52.3803 25.4902 0.0677566 54.3675 
31.0415 -0.423554 54.5583 33.6476 -11.701 54.7534 39.2236 -8.79965 54.6404 
6.19883 -0.386645 54.5783 18.4719 0.0177049 55.0016 24.3424 -13.5997 54.9064 
40.658 -2.99219 54.5402 33.8694 -6.09817 56.0788 13.9328 -3.39582 56.0934 
22.4973 -9.2515 57.9267 27.6692 -9.76619 57.7696 17.9701 -5.40195 57.658 
28.5982 -6.50557 58.0271 
POLYGONS 226 904
3 0 1 2 
3 1 3 4 
3 5 6 7 
3 8 9 10 
3 11 12 13 
3 14 15 11 
3 3 1 0 
3 1 4 16 
3 2 17 18 
3 19 1 16 
3 17 20 18 
3 21 22 23 
3 22 24 23 
3 25 26 27 
3 28 13 29 
3 8 10 15 
3 10 9 30 
3 14 8 15 
3 11 15 12 
3 31 32 33 
3 34 32 31 
3 17 2 1 
3 35 36 20 
3 19 37 1 
3 38 39 40 
3 41 42 43 
3 36 35 44 
3 5 45 43 
3 46 44 47 
3 21 48 49 
3 50 51 52 
3 53 54 27 
3 54 28 29 
3 30 34 31 
3 17 35 20 
3 38 40 55 
3 42 5 43 
3 45 5 7 
3 51 6 5 
3 21 23 48 
3 56 51 50 
3 24 25 23 
3 26 53 27 
3 29 27 54 
3 30 31 10 
3 29 13 12 
3 33 57 58 
3 55 40 41 
3 35 47 44 
3 51 56 6 
3 23 25 27 
3 52 59 60 
3 10 31 61 
3 62 63 57 
3 40 42 41 
3 51 64 52 
3 59 52 64 
3 65 66 67 
3 67 62 65 
3 63 62 67 
3 31 33 58 
3 68 17 1 
3 1 37 69 
3 40 39 46 
3 70 35 17 
3 71 69 37 
3 71 37 49 
3 66 60 67 
3 67 60 59 
3 58 57 63 
3 46 72 40 
3 72 46 47 
3 48 71 49 
3 73 23 27 
3 31 74 61 
3 17 68 70 
3 69 68 1 
3 75 47 35 
3 61 76 10 
3 10 76 15 
3 12 15 77 
3 48 23 73 
3 31 58 74 
3 70 75 35 
3 15 78 77 
3 29 12 77 
3 69 79 68 
3 59 80 67 
3 78 15 76 
3 81 63 67 
3 72 82 40 
3 5 83 51 
3 51 83 64 
3 73 84 48 
3 42 40 82 
3 69 85 79 
3 84 71 48 
3 64 83 59 
3 86 27 29 
3 68 75 70 
3 75 72 47 
3 80 81 67 
3 69 71 85 
3 83 80 59 
3 61 87 76 
3 86 29 77 
3 63 88 58 
3 63 81 88 
3 89 74 58 
3 82 90 42 
3 71 91 85 
3 84 91 71 
3 86 92 27 
3 61 74 93 
3 58 88 89 
3 79 85 68 
3 68 94 75 
3 72 95 82 
3 72 75 95 
3 95 90 82 
3 42 90 5 
3 5 96 83 
3 84 73 92 
3 73 27 92 
3 83 96 97 
3 80 83 97 
3 81 80 98 
3 81 98 88 
3 94 68 85 
3 95 75 99 
3 5 90 96 
3 78 76 100 
3 87 61 93 
3 76 87 100 
3 77 78 100 
3 98 89 88 
3 87 93 101 
3 100 102 77 
3 102 86 77 
3 103 85 91 
3 91 84 104 
3 87 101 100 
3 80 105 98 
3 93 74 106 
3 99 75 107 
3 90 95 99 
3 75 94 107 
3 103 94 85 
3 99 96 90 
3 108 104 84 
3 92 108 84 
3 108 92 86 
3 97 105 80 
3 98 106 89 
3 106 74 89 
3 105 97 96 
3 86 102 108 
3 91 104 103 
3 93 106 101 
3 106 98 105 
3 108 109 104 
3 96 110 105 
3 108 102 109 
3 106 105 110 
3 102 100 101 
3 99 107 111 
3 107 94 103 
3 99 111 96 
3 112 103 109 
3 109 103 104 
3 103 112 107 
3 113 110 96 
3 113 102 101 
3 101 106 110 
3 111 107 112 
3 113 96 111 
3 109 114 112 
3 109 102 114 
3 110 113 101 
3 102 113 114 
3 114 111 112 
3 114 113 111 
3 11 14 13 
3 13 14 28 
3 7 45 6 
3 45 43 6 
3 43 41 6 
3 41 55 6 
3 55 38 6 
3 6 38 56 
3 56 38 50 
3 50 38 52 
3 52 38 60 
3 14 8 28 
3 37 49 19 
3 19 49 16 
3 49 21 16 
3 65 66 62 
3 33 57 32 
3 32 57 34 
3 16 21 4 
3 21 22 4 
3 4 22 3 
3 3 22 0 
3 0 22 2 
3 2 22 18 
3 22 24 18 
3 24 25 18 
3 25 26 18 
3 26 53 18 
3 53 54 18 
3 54 28 18 
3 28 8 18 
3 8 9 18 
3 9 30 18 
3 30 34 18 
3 34 57 18 
3 60 38 66 
3 66 38 62 
3 62 38 57 
3 38 39 57 
3 39 46 57 
3 46 44 57 
3 44 36 57 
3 57 36 18 
3 18 36 20 

POINT_DATA 115
SCALARS attribute float
LOOKUP_TABLE default
0.654629 1 0.817484 0.850904 0.714206 1 0.859623 0.840998 0.853652 
0.930343 1 0.804813 1 0.827529 0.924779 1 0.870355 1 
0.826952 0.894507 0.806496 0.847181 0.720543 1 0.940451 0.905984 0.859058 
1 0.828472 1 0.904968 1 0.732169 0.926854 0.894761 1 
0.845953 0.952821 0.822683 0.939233 1 0.904907 1 0.669583 0.873156 
0.722058 0.9559 1 1 0.920034 0.865339 1 0.901044 0.938996 
0.879951 0.748628 0.893008 0.907624 1 1 0.931148 1 0.902258 
1 1 0.945556 0.938108 1 1 1 1 1 
1 1 1 1 1 1 1 1 1 
1 1 1 1 1 1 1 1 1 
1 1 1 1 1 1 1 1 1 
1 1 1 1 1 1 1 1 1 
1 1 1 1 1 1 1 
