# vtk DataFile Version 3.0
vtk output
ASCII
DATASET POLYDATA
POINTS 144 float
38.7403 -18.0486 -18.5653 40.0851 -17.6769 -18.66 41.6009 -16.8091 -18.1554 
43.4904 -14.4892 -18.5461 44.1282 -12.4692 -18.1994 42.7521 -15.4032 -13.448 
42.9922 -1.47613 -18.1996 42.385 0.113287 -18.3338 43.3867 0.53125 -13.4167 
4.67738 2.25487 -18.1494 4.28723 1.24475 -18.7449 3.88606 -0.210598 -18.7718 
41.9951 1.80806 -18.6142 3.72354 -13.2097 -18.6548 5.68401 -15.3703 -17.6773 
3.28856 -12.2167 -18.4406 43.4185 -3.89842 -18.4874 44.3503 -4.95941 -12.797 
44.1054 -7.53802 -18.2326 41.1135 5.83958 -16.416 39.7144 7.04579 -18.2903 
39.8118 8.69356 -16.1406 17.3734 13.9062 -17.4092 15.6803 13.1094 -18.6675 
13.6321 12.7329 -17.7666 20.3282 -18.8779 -18.1396 25.1606 -20.2592 -14.3045 
15.7471 -18.8094 -17.5612 35.4395 -18.7299 -18.5889 10.5892 -17.7358 -18.2173 
12.5456 -18.0108 -18.6894 11.592 -19.8476 -10.1493 36.7558 -19.0231 -16.1901 
2.26961 -8.1855 -13.5452 2.49779 -3.35115 -12.7279 2.67425 -11.1704 -18.5137 
2.71893 -4.20357 -18.4502 3.38561 -2.19213 -18.6951 3.0481 0.634778 -9.84838 
41.3338 3.58537 -18.8001 7.37537 7.72538 -17.4906 6.60357 5.90627 -18.3409 
5.34857 4.12563 -18.4105 35.6477 11.7988 -18.3123 34.3392 12.9227 -17.7266 
9.7405 10.4231 -13.8546 10.8136 10.701 -18.6627 12.4376 11.7076 -18.6439 
31.2398 13.5448 -18.5788 28.4894 14.3006 -17.6659 32.8268 13.2556 -18.0612 
7.33315 -16.2981 -18.2766 8.72091 -17.0852 -18.2917 20.6148 14.0258 -17.9515 
20.9878 14.2817 -11.6001 21.3529 14.2691 -18.5349 26.3075 14.5006 -12.5001 
32.0371 14.1305 -9.23633 19.9151 -21.3411 -9.44113 7.14349 -17.5136 -9.639 
3.89872 -14.369 -8.482 37.4558 11.1883 -9.64942 43.9462 -11.4501 -10.484 
40.9838 6.46539 -8.97642 37.6398 -19.2497 -8.66369 43.7766 -5.7663 -8.54578 
3.52147 2.86448 -2.1478 6.44698 7.207 -6.03139 23.302 14.3293 -6.40835 
31.2856 -21.1899 -6.93359 1.87381 -9.25288 -8.39365 13.8862 12.1981 -6.93151 
13.1506 -21.14 -1.1994 42.7816 -1.02688 -6.28312 9.83959 9.16684 0.681341 
37.0019 -18.9193 0.578754 1.3802 -6.61526 -4.73902 1.66468 -1.70599 0.659036 
7.55518 -18.9004 0.523009 26.2557 -21.797 -5.24512 39.3079 4.42021 -0.536448 
39.7238 -15.8287 0.658707 41.0136 -10.3241 0.132556 6.13267 6.22118 0.654705 
33.6186 11.6863 0.683501 35.1289 10.6519 0.611166 2.96661 -14.5138 0.115221 
4.69651 4.53261 0.688376 7.5295 7.57951 0.570543 36.8409 8.6549 0.654492 
20.8277 12.6171 0.646605 27.561 13.2972 0.642145 15.6137 -21.2919 0.564557 
35.1115 -19.7483 0.604839 37.6731 7.26761 0.56896 32.3532 12.3753 0.690726 
30.6215 12.8775 0.656153 17.8258 -21.5729 0.703986 2.78797 1.27945 0.606785 
15.4664 11.4184 0.666421 1.18966 -3.87547 0.640789 39.3171 2.30299 0.659153 
21.2604 -21.6802 0.646802 27.5524 -21.2127 0.237994 9.52576 -19.9541 0.685877 
1.40318 -10.3625 0.593071 25.0065 13.1568 0.645506 38.9667 -16.9431 0.655099 
30.8965 -20.8264 0.664821 12.7479 -20.8156 0.647399 32.9221 -20.4074 0.678811 
6.5453 -18.1003 0.697152 40.3511 -14.2766 0.661573 18.8599 12.1984 0.674034 
24.8302 -21.3137 0.630189 40.0675 -2.5639 0.641622 40.262 -3.95661 0.656745 
10.8578 9.70923 0.605255 23.1057 -21.4318 0.665256 35.9184 -19.3448 0.653606 
38.3426 5.51992 0.741305 13.3635 10.6748 0.619815 4.99198 -16.9226 0.652105 
40.7536 -11.4525 0.665722 2.60245 -13.7564 0.631741 1.09017 -9.20392 0.674445 
40.655 -7.21799 0.654991 39.7474 -0.160043 0.655962 2.1458 -0.288644 0.653622 
14.0173 -21.1808 0.70385 26.8493 -21.3035 0.690889 10.8622 -20.358 0.673491 
40.7808 -10.2272 0.659913 3.5551 2.74475 0.65154 38.822 4.12232 0.67401 
38.0202 -17.989 0.766935 8.32429 8.24778 0.676185 23.2788 -2.31851 -68.4893 
25.0039 13.0848 0.878599 2.20241 -13.3182 1.16542 1.16549 -3.39184 0.755769 
3.65957 2.92256 0.832914 5.54092 5.65168 1.24235 35.5867 10.0277 0.744644 

POLYGONS 284 1136
3 0 1 2 
3 3 4 5 
3 6 7 8 
3 9 10 11 
3 12 8 7 
3 13 14 15 
3 16 17 18 
3 19 20 21 
3 22 23 24 
3 25 26 27 
3 28 26 25 
3 29 30 31 
3 0 2 32 
3 33 34 35 
3 35 34 36 
3 17 16 8 
3 16 6 8 
3 37 38 11 
3 12 39 8 
3 40 41 42 
3 43 44 21 
3 31 30 27 
3 28 32 26 
3 3 5 2 
3 4 18 17 
3 11 38 9 
3 8 39 19 
3 45 46 40 
3 47 46 24 
3 48 49 50 
3 51 52 14 
3 37 36 34 
3 24 46 45 
3 53 22 54 
3 53 54 55 
3 55 56 49 
3 15 33 35 
3 44 50 57 
3 56 55 54 
3 50 49 57 
3 26 58 27 
3 59 14 52 
3 60 15 14 
3 61 21 44 
3 60 14 59 
3 15 60 33 
3 62 4 17 
3 27 58 31 
3 62 5 4 
3 37 34 38 
3 9 38 42 
3 19 21 63 
3 29 31 52 
3 8 19 63 
3 49 56 57 
3 2 64 32 
3 64 2 5 
3 65 17 8 
3 42 38 66 
3 67 42 66 
3 42 67 40 
3 44 57 61 
3 56 68 57 
3 26 69 58 
3 26 32 69 
3 33 70 34 
3 40 67 45 
3 54 22 68 
3 71 24 45 
3 24 71 22 
3 33 60 70 
3 58 72 31 
3 32 64 69 
3 31 59 52 
3 62 17 65 
3 8 63 73 
3 68 56 54 
3 21 61 63 
3 71 45 74 
3 5 75 64 
3 76 34 70 
3 65 8 73 
3 22 71 68 
3 76 77 34 
3 59 31 78 
3 77 38 34 
3 58 69 79 
3 63 80 73 
3 5 62 81 
3 82 62 65 
3 66 83 67 
3 67 74 45 
3 84 85 61 
3 64 75 69 
3 78 60 59 
3 60 78 86 
3 63 61 85 
3 60 86 70 
3 66 87 83 
3 67 88 74 
3 63 85 89 
3 61 57 84 
3 71 90 68 
3 57 68 91 
3 72 58 92 
3 75 93 69 
3 63 94 80 
3 95 57 96 
3 92 58 97 
3 81 75 5 
3 98 38 77 
3 38 98 66 
3 88 67 83 
3 90 71 99 
3 82 65 73 
3 77 76 100 
3 73 80 101 
3 57 91 96 
3 79 102 58 
3 79 69 103 
3 31 72 104 
3 31 104 78 
3 70 105 76 
3 63 89 94 
3 106 68 90 
3 81 107 75 
3 105 70 86 
3 58 102 97 
3 69 108 103 
3 104 72 109 
3 110 69 93 
3 78 111 86 
3 81 62 112 
3 82 112 62 
3 99 113 90 
3 103 114 79 
3 69 110 108 
3 115 116 73 
3 74 117 71 
3 84 57 95 
3 79 118 102 
3 93 75 119 
3 120 80 94 
3 71 117 121 
3 71 121 99 
3 114 118 79 
3 86 111 122 
3 123 112 82 
3 124 105 86 
3 105 125 76 
3 73 126 82 
3 76 125 100 
3 73 127 115 
3 128 98 77 
3 127 73 101 
3 68 106 91 
3 72 92 129 
3 103 130 114 
3 129 109 72 
3 131 104 109 
3 132 123 82 
3 126 73 116 
3 133 66 98 
3 133 87 66 
3 134 101 80 
3 134 80 120 
3 108 130 103 
3 135 75 107 
3 124 86 122 
3 126 132 82 
3 74 88 136 
3 25 27 137 
3 28 25 137 
3 32 28 137 
3 0 32 137 
3 1 0 137 
3 2 1 137 
3 3 2 137 
3 4 3 137 
3 18 4 137 
3 16 18 137 
3 6 16 137 
3 7 6 137 
3 12 7 137 
3 39 12 137 
3 19 39 137 
3 20 19 137 
3 21 20 137 
3 43 21 137 
3 44 43 137 
3 50 44 137 
3 48 50 137 
3 49 48 137 
3 55 49 137 
3 53 55 137 
3 22 53 137 
3 23 22 137 
3 24 23 137 
3 47 24 137 
3 46 47 137 
3 40 46 137 
3 41 40 137 
3 42 41 137 
3 9 42 137 
3 10 9 137 
3 11 10 137 
3 37 11 137 
3 36 37 137 
3 35 36 137 
3 15 35 137 
3 13 15 137 
3 14 13 137 
3 51 14 137 
3 52 51 137 
3 29 52 137 
3 30 29 137 
3 27 30 137 
3 102 118 97 
3 126 116 123 
3 90 138 106 
3 124 139 105 
3 132 126 123 
3 100 140 77 
3 127 116 115 
3 87 133 141 
3 83 87 142 
3 89 85 143 
3 121 117 74 
3 85 84 143 
3 91 106 138 
3 96 91 95 
3 114 130 118 
3 119 75 135 
3 138 95 91 
3 78 104 111 
3 139 124 122 
3 105 139 125 
3 139 125 122 
3 125 100 122 
3 122 100 111 
3 111 100 104 
3 135 119 107 
3 107 119 81 
3 81 119 112 
3 112 119 123 
3 123 119 116 
3 116 119 127 
3 140 77 100 
3 100 77 104 
3 95 84 138 
3 84 143 138 
3 138 143 90 
3 143 89 90 
3 89 94 90 
3 94 120 90 
3 120 134 90 
3 134 101 90 
3 101 127 90 
3 127 119 90 
3 129 109 92 
3 90 119 113 
3 113 119 99 
3 99 119 121 
3 121 119 74 
3 104 77 131 
3 131 77 109 
3 109 77 92 
3 92 77 97 
3 97 77 118 
3 118 77 130 
3 130 77 108 
3 74 119 136 
3 77 128 108 
3 128 98 108 
3 98 133 108 
3 108 133 110 
3 110 133 93 
3 142 83 87 
3 87 83 141 
3 83 88 141 
3 136 119 88 
3 88 119 141 
3 119 93 141 
3 133 141 93 

POINT_DATA 144
SCALARS attribute float
LOOKUP_TABLE default
1 1 1 1 1 1 1 1 1 
1 1 1 1 1 1 1 1 1 
1 1 1 1 1 1 1 1 1 
1 1 1 1 1 1 1 1 1 
1 1 1 1 1 1 1 1 1 
1 1 1 1 1 1 1 1 1 
1 1 1 1 1 1 1 1 1 
1 1 1 1.01093 1 1 1 1 1 
1.00462 1 0.919303 0.959082 1 0.955671 0.932624 1 1.00375 
0.955482 0.988747 0.827719 0.865337 0.887815 0.999661 0.893498 0.93289 0.910277 
0.899825 0.954188 0.925357 0.94154 0.906724 0.912092 0.755243 0.889851 0.825891 
0.934642 0.874014 0.906623 0.847274 0.975465 0.95704 0.76974 0.572772 0.850103 
0.820305 0.707762 0.861974 0.848256 0.833153 0.886319 0.850533 0.500359 0.846645 
0.484011 0.685156 0.883178 0.778642 0.893214 0.932011 0.814754 0.286718 0.880852 
0.424651 0.805209 0.655494 0.503515 0.914813 0.894915 0.281317 -0.176669 0.5798 
0.320359 0.621337 1 0.972394 0.99952 0.981403 0.940873 1.01208 1.00689 

